H2O                                                                     
Freq      RHF                                                         STO-3G              
Number of atoms                            I                3
Charge                                     I                0
Multiplicity                               I                1
Number of electrons                        I               10
Number of alpha electrons                  I                5
Number of beta electrons                   I                5
Number of basis functions                  I                7
Number of independant functions            I                7
Number of point charges in /Mol/           I                0
Number of translation vectors              I                0
Info1-9                                    I   N=           9
          21          20        1002           0           0         100
           6           1           1
Num ILSW                                   I              100
ILSW                                       I   N=         100
           0           0           0           0           2           0
           0           0           0           0           0     1000000
           0           0           0           0           0           0
           0     1000000           1           0           1           0
           1           0           0           0     1000000           0
           0           0           0           0          -1           0
           0           0           0           0           0           0
           0           0           0           1           0           0
           0           0           1     1000000     1000000           0
           0           0           0           0           0           0
           0           0           0           0           0           0
           0           0           0           0           0           0
           0           0           0           0           0           0
           0           0           0           0           0           0
           0           0           0           0           0           0
           0           0           0           0           0           0
           0           0           0           0
Number of contracted shells                I                4
Highest angular momentum                   I                1
Largest degree of contraction              I                3
Number of primitive shells                 I               12
Pure/Cartesian d shells                    I                0
Pure/Cartesian f shells                    I                0
Virial Ratio                               R      2.005998402366465E+00
SCF Energy                                 R     -7.496590117124661E+01
Total Energy                               R     -7.496590117124661E+01
RMS Force                                  R      1.084197236766446E-04
RMS Density                                R      1.376929398379134E-15
Atomic numbers                             I   N=           3
           8           1           1
Nuclear charges                            R   N=           3
  8.00000000E+00  1.00000000E+00  1.00000000E+00
Current cartesian coordinates              R   N=           9
  2.46519033E-32  0.00000000E+00  2.40243238E-01  3.94430453E-31  1.43244277E+00
 -9.60972952E-01 -1.75417851E-16 -1.43244277E+00 -9.60972952E-01
Int Atom Types                             I   N=           3
           0           0           0
Force Field                                I                0
MM charges                                 R   N=           3
  0.00000000E+00  0.00000000E+00  0.00000000E+00
Integer atomic weights                     I   N=           3
          16           1           1
Real atomic weights                        R   N=           3
  1.59949146E+01  1.00782504E+00  1.00782504E+00
Atom residue info                          I   N=           3
           0           0           0
Atom fragment info                         I   N=           3
           0           0           0
Atom residue num                           I   N=           3
           0           0           0
Nuclear spins                              I   N=           3
           0           1           1
Nuclear ZEff                               R   N=           3
 -5.60000000E+00 -1.00000000E+00 -1.00000000E+00
Nuclear QMom                               R   N=           3
  0.00000000E+00  0.00000000E+00  0.00000000E+00
Nuclear GFac                               R   N=           3
  0.00000000E+00  2.79284600E+00  2.79284600E+00
MicOpt                                     I   N=           3
          -1          -1          -1
Constraint Structure                       R   N=           9
  2.46519033E-32  0.00000000E+00  2.40243238E-01  3.94430453E-31  1.43244277E+00
 -9.60972952E-01 -1.75417851E-16 -1.43244277E+00 -9.60972952E-01
ONIOM Charges                              I   N=          16
           0           0           0           0           0           0
           0           0           0           0           0           0
           0           0           0           0
ONIOM Multiplicities                       I   N=          16
           1           0           0           0           0           0
           0           0           0           0           0           0
           0           0           0           0
Atom Layers                                I   N=           3
           0           0           0
Atom Modifiers                             I   N=           3
           0           0           0
Int Atom Modified Types                    I   N=           3
           0           0           0
Link Atoms                                 I   N=           3
           0           0           0
Atom Modified MM Charges                   R   N=           3
  0.00000000E+00  0.00000000E+00  0.00000000E+00
Link Distances                             R   N=          12
  0.00000000E+00  0.00000000E+00  0.00000000E+00  0.00000000E+00  0.00000000E+00
  0.00000000E+00  0.00000000E+00  0.00000000E+00  0.00000000E+00  0.00000000E+00
  0.00000000E+00  0.00000000E+00
MxBond                                     I                2
NBond                                      I   N=           3
           2           1           1
IBond                                      I   N=           6
           2           3           1           0           1           0
RBond                                      R   N=           6
  1.00000000E+00  1.00000000E+00  1.00000000E+00  0.00000000E+00  1.00000000E+00
  0.00000000E+00
Shell types                                I   N=           4
           0          -1           0           0
Number of primitives per shell             I   N=           4
           3           3           3           3
Shell to atom map                          I   N=           4
           1           1           2           3
Primitive exponents                        R   N=          12
  1.30709321E+02  2.38088661E+01  6.44360831E+00  5.03315132E+00  1.16959612E+00
  3.80388960E-01  3.42525091E+00  6.23913730E-01  1.68855404E-01  3.42525091E+00
  6.23913730E-01  1.68855404E-01
Contraction coefficients                   R   N=          12
  1.54328967E-01  5.35328142E-01  4.44634542E-01 -9.99672292E-02  3.99512826E-01
  7.00115469E-01  1.54328967E-01  5.35328142E-01  4.44634542E-01  1.54328967E-01
  5.35328142E-01  4.44634542E-01
P(S=P) Contraction coefficients            R   N=          12
  0.00000000E+00  0.00000000E+00  0.00000000E+00  1.55916275E-01  6.07683719E-01
  3.91957393E-01  0.00000000E+00  0.00000000E+00  0.00000000E+00  0.00000000E+00
  0.00000000E+00  0.00000000E+00
Coordinates of each shell                  R   N=          12
  2.46519033E-32  0.00000000E+00  2.40243238E-01  2.46519033E-32  0.00000000E+00
  2.40243238E-01  3.94430453E-31  1.43244277E+00 -9.60972952E-01 -1.75417851E-16
 -1.43244277E+00 -9.60972952E-01
Alpha Orbital Energies                     R   N=           7
 -2.02515481E+01 -1.25760901E+00 -5.93940658E-01 -4.59728785E-01 -3.92618469E-01
  5.81917703E-01  6.92857155E-01
Alpha MO coefficients                      R   N=          49
  9.94216057E-01  2.58500150E-02  0.00000000E+00  0.00000000E+00 -4.16547325E-03
 -5.58545703E-03 -5.58545703E-03 -2.33759972E-01  8.44396959E-01  0.00000000E+00
  0.00000000E+00 -1.22880499E-01  1.55607645E-01  1.55607645E-01  0.00000000E+00
  0.00000000E+00  0.00000000E+00  6.12683908E-01  0.00000000E+00  4.49211252E-01
 -4.49211252E-01 -1.04040643E-01  5.38202371E-01  0.00000000E+00  0.00000000E+00
  7.55931270E-01 -2.95040545E-01 -2.95040545E-01  0.00000000E+00  0.00000000E+00
  1.00000000E+00  0.00000000E+00  0.00000000E+00  0.00000000E+00  0.00000000E+00
 -1.25844036E-01  8.20395714E-01  0.00000000E+00  0.00000000E+00 -7.63523234E-01
 -7.69271244E-01 -7.69271244E-01  0.00000000E+00  0.00000000E+00  0.00000000E+00
  9.59901435E-01  0.00000000E+00 -8.14757622E-01  8.14757622E-01
Total SCF Density                          R   N=          28
  2.10786749E+00 -4.55361261E-01  2.00667248E+00  0.00000000E+00  0.00000000E+00
  2.00000000E+00  0.00000000E+00  0.00000000E+00  6.90253292E-31  7.50763143E-01
 -1.08128827E-01  6.05952810E-01  2.95822839E-31 -5.43399793E-47  1.17309811E+00
 -2.24635639E-02 -5.50825651E-02  3.08148791E-33  5.50449010E-01 -4.84256505E-01
  6.26169216E-01 -2.24635639E-02 -5.50825651E-02  3.08148791E-33 -5.50449010E-01
 -4.84256505E-01 -1.80993778E-01  6.26169216E-01
Cartesian Gradient                         R   N=           9
  7.16463260E-16 -2.22058157E-16 -2.28070023E-04 -1.49847087E-17 -1.17833834E-04
  1.14035012E-04 -7.01478551E-16  1.17833834E-04  1.14035012E-04
Cartesian Force Constants                  R   N=          45
 -1.89865925E-04 -1.76751570E-16  8.04584647E-01 -3.41586331E-16  1.98174810E-14
  6.35148526E-01  9.49329625E-05  1.81796550E-17  4.34562970E-17 -8.85968626E-05
 -7.48866947E-17 -4.02292324E-01  2.16559539E-01  3.81354171E-17  4.39228651E-01
  1.08057743E-16  3.37433438E-01 -3.17574263E-01 -2.67533069E-17 -2.76996488E-01
  3.00228271E-01  9.49329625E-05  2.43493199E-16  2.46627097E-16 -6.33609993E-06
 -6.64102566E-18 -2.75427250E-17 -8.85968626E-05  2.39595307E-16 -4.02292324E-01
 -2.16559539E-01 -1.52988164E-17 -3.69363277E-02 -6.04369497E-02 -2.65825471E-16
  4.39228651E-01  1.87664060E-16 -3.37433438E-01 -3.17574263E-01  2.75352650E-17
  6.04369497E-02  1.73459917E-02 -2.17458099E-16  2.76996488E-01  3.00228271E-01
Dipole Moment                              R   N=           3
 -3.44553451E-17 -1.11022302E-16 -6.72515458E-01
Dipole Derivatives                         R   N=          27
 -5.59862133E-01  4.12036826E-16  3.11598741E-16 -3.84301391E-17 -3.12598761E-02
 -1.49359691E-15 -1.40373233E-17 -2.77555756E-17  8.34228888E-02  2.79931066E-01
  9.55519042E-17  1.15574932E-16  6.62727559E-18  1.56299380E-02  1.57076049E-01
 -3.84873469E-18  2.21637333E-01 -4.17114444E-02  2.79931066E-01 -1.82953920E-16
 -2.53090644E-16  5.56469928E-17  1.56299380E-02 -1.57076049E-01  4.81861280E-17
 -2.21637333E-01 -4.17114444E-02
Polarizability                             R   N=           6
  4.00581459E-02  3.18156799E-16  5.50610359E+00  1.58734874E-16  8.88178420E-16
  2.56451975E+00
Polarizability Derivatives                 R   N=          54
  2.35383927E-16 -4.68714398E-31  6.94622149E-15  2.10158806E+00  3.77853738E-15
  3.69303075E-15  6.00214323E-16  1.71785067E-16 -1.28785871E-14  7.19111834E-17
  2.85508754E+00 -8.43769499E-15 -1.81747961E-02  9.66964150E-17  3.13933288E+00
  1.99733095E-16  6.66133815E-15  4.86856842E+00  5.55389832E-17  1.90794549E+00
  6.06333952E-16 -1.05079403E+00  4.52382626E-16 -1.41035470E-16  3.12767248E-02
  6.68248028E-17  4.44182788E+00 -2.51245559E-17 -1.42754377E+00  2.08527441E-01
  9.08739803E-03 -4.97533536E-17 -1.56966644E+00  5.20984093E-17  2.22387985E+00
 -2.43428421E+00 -4.56126774E-16 -1.90794549E+00 -6.20148662E-15 -1.05079403E+00
 -2.90431304E-15 -1.70632383E-15 -3.12767248E-02 -2.40169201E-16 -4.44182788E+00
 -1.69807292E-17 -1.42754377E+00 -2.08527441E-01  9.08739803E-03 -5.90159761E-18
 -1.56966644E+00 -1.65207622E-16 -2.22387985E+00 -2.43428421E+00
HyperPolarizability                        R   N=          10
 -3.59215361E-17  1.04083409E-16 -2.96747188E-16 -8.43769499E-15  7.61718046E-02
 -3.00084802E-16 -7.00963830E+00 -1.55924878E-16 -2.22044605E-15 -4.11190900E+00
QEq coupling tensors                       R   N=          18
  2.72477317E+00  1.16475518E-16 -2.20622327E+00  1.02439884E-16 -1.88737914E-15
 -5.18549904E-01  2.32403785E-01  3.84853676E-18 -2.00833232E-01  2.07648355E-18
  2.77057353E-01 -3.15705527E-02  2.32403785E-01 -1.02108306E-16 -2.00833232E-01
 -8.04136585E-17 -2.77057353E-01 -3.15705527E-02
Mulliken Charges                           R   N=           3
 -3.30665371E-01  1.65332685E-01  1.65332685E-01
Optimization MaxStp                        I                2
Optimization Job offset                    I                0
Optimization Num results per geometry      I                2
Optimization Num geometry variables        I                9
Opt point       1 Results for each geome   R   N=           2
 -7.49659012E+01  0.00000000E+00
Opt point       1 Geometries               R   N=           9
  2.46519033E-32  0.00000000E+00  2.40243238E-01  3.94430453E-31  1.43244277E+00
 -9.60972952E-01 -1.75417851E-16 -1.43244277E+00 -9.60972952E-01
Opt point       1 Gradient at each geome   R   N=           9
  7.16463260E-16 -2.22058157E-16 -2.28070023E-04 -1.49847087E-17 -1.17833834E-04
  1.14035012E-04 -7.01478551E-16  1.17833834E-04  1.14035012E-04
Optimization Number of geometries          I   N=           1
           1
